 vasp.6.3.1 04May22 (build May 18 2022 10:56:25) complex                         
 executed on              LinuxNV date 2022.06.04  07:45:51
 running on    8 total cores
 distrk:  each k-point on    8 cores,    1 groups
 distr:  one band on NCORE=   1 cores,    8 groups


--------------------------------------------------------------------------------------------------------


 INCAR:
   ISTART = 0
   LWAVE = .FALSE.
   LCHARG = .FALSE.
   EDIFF = 1e-5
   METAGGA = R2SCAN
   LASPH = .TRUE.
   NELMIN = 4
   ENMAX = 800
   ISYM = 0
   LREAL = Auto
   ALGO = Fast
   ISMEAR = 0
   SIGMA = 0.05
   IBRION = 0
   NSW = 10000
   POTIM = 0.5
   TEBEG = 400
   TEEND = 400
   MDALGO = 3
   SMASS = 0.0972
   ISIF = 3
   LANGEVIN_GAMMA = 10.0  10.0
   LANGEVIN_GAMMA_L = 20.0
   PSTRESS = 0.01
   PMASS = 500
   KPAR = 1

 POTCAR:    PAW_PBE O 08Apr2002                   
 POTCAR:    PAW_PBE H 15Jun2001                   
 -----------------------------------------------------------------------------
|                                                                             |
|           W    W    AA    RRRRR   N    N  II  N    N   GGGG   !!!           |
|           W    W   A  A   R    R  NN   N  II  NN   N  G    G  !!!           |
|           W    W  A    A  R    R  N N  N  II  N N  N  G       !!!           |
|           W WW W  AAAAAA  RRRRR   N  N N  II  N  N N  G  GGG   !            |
|           WW  WW  A    A  R   R   N   NN  II  N   NN  G    G                |
|           W    W  A    A  R    R  N    N  II  N    N   GGGG   !!!           |
|                                                                             |
|     For optimal performance we recommend to set                             |
|       NCORE = 2 up to number-of-cores-per-socket                            |
|     NCORE specifies how many cores store one orbital (NPAR=cpu/NCORE).      |
|     This setting can greatly improve the performance of VASP for DFT.       |
|     The default, NCORE=1 might be grossly inefficient on modern             |
|     multi-core architectures or massively parallel machines. Do your        |
|     own testing! More info at https://www.vasp.at/wiki/index.php/NCORE      |
|     Unfortunately you need to use the default for GW and RPA                |
|     calculations (for HF NCORE is supported but not extensively tested      |
|     yet).                                                                   |
|                                                                             |
 -----------------------------------------------------------------------------

 POTCAR:    PAW_PBE O 08Apr2002                   
   VRHFIN =O: s2p4                                                                                  
   LEXCH  = PE                                                                                      
   EATOM  =   432.3788 eV,   31.7789 Ry                                                             
                                                                                                    
   TITEL  = PAW_PBE O 08Apr2002                                                                     
   LULTRA =        F    use ultrasoft PP ?                                                          
   IUNSCR =        1    unscreen: 0-lin 1-nonlin 2-no                                               
   RPACOR =    1.200    partial core radius                                                         
   POMASS =   16.000; ZVAL   =    6.000    mass and valenz                                          
   RCORE  =    1.520    outmost cutoff radius                                                       
   RWIGS  =    1.550; RWIGS  =    0.820    wigner-seitz radius (au A)                               
   ENMAX  =  400.000; ENMIN  =  300.000 eV                                                          
   ICORE  =        2    local potential                                                             
   LCOR   =        T    correct aug charges                                                         
   LPAW   =        T    paw PP                                                                      
   EAUG   =  605.392                                                                                
   DEXC   =    0.000                                                                                
   RMAX   =    1.553    core radius for proj-oper                                                   
   RAUG   =    1.300    factor for augmentation sphere                                              
   RDEP   =    1.550    radius for radial grids                                                     
   RDEPT  =    1.329    core radius for aug-charge                                                  
                                                                                                    
   Atomic configuration                                                                             
    4 entries                                                                                       
     n  l   j            E        occ.                                                              
     1  0  0.50      -514.6923   2.0000                                                             
     2  0  0.50       -23.9615   2.0000                                                             
     2  1  0.50        -9.0305   4.0000                                                             
     3  2  1.50        -9.5241   0.0000                                                             
   Description                                                                                      
     l       E           TYP  RCUT    TYP  RCUT                                                     
     0    -23.9615318     23  1.200                                                                 
     0     -9.5240782     23  1.200                                                                 
     1     -9.0304911     23  1.520                                                                 
     1      8.1634956     23  1.520                                                                 
     2     -9.5240782      7  1.500                                                                 
  local pseudopotential read in
  partial core-charges read in
  partial kinetic energy density read in
  kinetic energy density of atom read in
  atomic valenz-charges read in
  non local Contribution for L=            0  read in
    real space projection operators read in
  non local Contribution for L=            0  read in
    real space projection operators read in
  non local Contribution for L=            1  read in
    real space projection operators read in
  non local Contribution for L=            1  read in
    real space projection operators read in
    PAW grid and wavefunctions read in
 
   number of l-projection  operators is LMAX  =            4
   number of lm-projection operators is LMMAX =            8
 
 POTCAR:    PAW_PBE H 15Jun2001                   
   VRHFIN =H: ultrasoft test                                                                        
   LEXCH  = PE                                                                                      
   EATOM  =    12.4884 eV,    0.9179 Ry                                                             
                                                                                                    
   TITEL  = PAW_PBE H 15Jun2001                                                                     
   LULTRA =        F    use ultrasoft PP ?                                                          
   IUNSCR =        0    unscreen: 0-lin 1-nonlin 2-no                                               
   RPACOR =    0.000    partial core radius                                                         
   POMASS =    1.000; ZVAL   =    1.000    mass and valenz                                          
   RCORE  =    1.100    outmost cutoff radius                                                       
   RWIGS  =    0.700; RWIGS  =    0.370    wigner-seitz radius (au A)                               
   ENMAX  =  250.000; ENMIN  =  200.000 eV                                                          
   RCLOC  =    0.701    cutoff for local pot                                                        
   LCOR   =        T    correct aug charges                                                         
   LPAW   =        T    paw PP                                                                      
   EAUG   =  400.000                                                                                
   RMAX   =    1.123    core radius for proj-oper                                                   
   RAUG   =    1.200    factor for augmentation sphere                                              
   RDEP   =    1.112    radius for radial grids                                                     
   RDEPT  =    0.926    core radius for aug-charge                                                  
                                                                                                    
   Atomic configuration                                                                             
    2 entries                                                                                       
     n  l   j            E        occ.                                                              
     1  0  0.50        -6.4927   1.0000                                                             
     2  1  0.50        -3.4015   0.0000                                                             
   Description                                                                                      
     l       E           TYP  RCUT    TYP  RCUT                                                     
     0     -6.4927494     23  1.100                                                                 
     0      6.8029130     23  1.100                                                                 
     1     -4.0817478     23  1.100                                                                 
  local pseudopotential read in
  atomic valenz-charges read in
  non local Contribution for L=            0  read in
    real space projection operators read in
  non local Contribution for L=            0  read in
    real space projection operators read in
  non local Contribution for L=            1  read in
    real space projection operators read in
    PAW grid and wavefunctions read in
 
   number of l-projection  operators is LMAX  =            3
   number of lm-projection operators is LMMAX =            5
 
 Optimization of the real space projectors (new method)

 maximal supplied QI-value         = 24.76
 optimisation between [QCUT,QGAM] = [ 14.36, 28.96] = [ 57.73,234.92] Ry 
 Optimized for a Real-space Cutoff    0.95 Angstroem

   l    n(q)    QCUT    max X(q) W(low)/X(q) W(high)/X(q)  e(spline) 
   0      8    14.358    20.381    0.16E-03    0.34E-03    0.84E-07
   0      8    14.358    15.268    0.17E-03    0.36E-03    0.94E-07
   1      8    14.358     5.964    0.41E-03    0.21E-03    0.13E-06
   1      8    14.358     5.382    0.36E-03    0.17E-03    0.11E-06
 Optimization of the real space projectors (new method)

 maximal supplied QI-value         = 34.20
 optimisation between [QCUT,QGAM] = [ 14.37, 28.73] = [ 57.79,231.16] Ry 
 Optimized for a Real-space Cutoff    0.92 Angstroem

   l    n(q)    QCUT    max X(q) W(low)/X(q) W(high)/X(q)  e(spline) 
   0      8    14.366    19.460    0.37E-03    0.44E-03    0.12E-06
   0      8    14.366    12.209    0.35E-03    0.42E-03    0.11E-06
   1      7    14.366     4.655    0.78E-04    0.25E-03    0.18E-06
  PAW_PBE O 08Apr2002                   :
 energy of atom  1       EATOM= -432.3788
 kinetic energy error for atom=    0.0041 (will be added to EATOM!!)
  PAW_PBE H 15Jun2001                   :
 energy of atom  2       EATOM=  -12.4884
 kinetic energy error for atom=    0.0002 (will be added to EATOM!!)
 
 
 POSCAR: O H
  positions in cartesian coordinates
  No initial velocities read in

 METAGGA = R2SCA    LMAXTAU =  6    LMIXTAU =  F


  MD-specific parameters
                MDALGO =   3
        LANGEVIN_GAMMA =    10.000   10.000
      LANGEVIN_GAMMA_L =    20.000
                 CNEXP =     9.000   14.000
 exchange correlation table for  LEXCH =        8
   RHO(1)=    0.500       N(1)  =     2000
   RHO(2)=  100.500       N(2)  =     4000
 


--------------------------------------------------------------------------------------------------------


 ion  position               nearest neighbor table
   1  0.001  0.288  0.746-  65 1.03  66 1.06
   2  0.632  0.654  0.562-  67 1.00  68 1.06
   3  0.177  0.258  0.353-  70 0.98  69 1.05
   4  0.413  0.597  0.519-  71 1.03  72 1.04
   5  0.284  0.782  0.030-  73 0.98  74 0.98
   6  0.710  0.705  0.057-  76 0.97  75 1.00
   7  0.256  0.028  0.540-  78 1.00  77 1.03
   8  0.235  0.315  0.569-  79 0.98  80 0.99
   9  0.392  0.159  0.662-  82 0.95  81 1.03
  10  0.460  0.286  0.456-  84 0.96  83 0.99
  11  0.518  0.741  0.950-  85 1.02  86 1.02
  12  0.391  0.507  0.933-  87 0.99  88 1.04
  13  0.638  0.930  0.181-  90 1.04  89 1.10
  14  0.884  0.411  0.929-  91 1.02  92 1.04
  15  0.603  0.343  0.625-  94 0.99  93 1.05
  16  0.868  0.742  0.216-  96 1.04  95 1.05
  17  0.112  0.226  0.049-  97 1.00  98 1.04
  18  0.829  0.033  0.225- 100 0.99  99 1.03
  19  0.554  0.737  0.288- 102 1.05 101 1.09
  20  0.692  0.522  0.774- 104 0.97 103 1.11
  21  0.346  0.863  0.322- 106 0.98 105 1.07
  22  0.564  0.017  0.667- 108 1.05 107 1.05
  23  0.763  0.262  0.156- 109 0.99 110 1.02
  24  0.375  0.004  0.147- 111 1.04 112 1.07
  25  0.673  0.145  0.506- 114 0.98 113 1.02
  26  0.171  0.594  0.559- 116 0.90 115 0.97
  27  0.863  0.882  0.396- 118 1.00 117 1.07
  28  0.891  0.873  0.613- 120 0.93 119 1.06
  29  0.782  0.323  0.391- 122 1.03 121 1.13
  30  0.727  0.893  0.776- 123 0.96 124 1.00
  31  0.027  0.075  0.656- 126 0.98 125 0.98
  32  0.936  0.559  0.732- 127 1.02 128 1.08
  33  0.116  0.684  0.906- 130 0.98 129 1.01
  34  0.231  0.304  0.840- 131 1.03 132 1.06
  35  0.552  0.004  0.967- 134 1.00 133 1.02
  36  0.666  0.475  0.006- 135 0.98 136 1.00
  37  0.513  0.018  0.376- 137 1.01 138 1.07
  38  0.060  0.905  0.842- 139 1.02 140 1.02
  39  0.963  0.054  0.035- 141 0.94 142 1.00
  40  0.390  0.896  0.841- 144 1.02 143 1.12
  41  0.756  0.594  0.348- 146 0.95 145 1.01
  42  0.960  0.588  0.044- 147 0.92 148 1.08
  43  0.019  0.413  0.171- 149 1.06 150 1.13
  44  0.853  0.671  0.552- 151 0.94 152 1.04
  45  0.454  0.209  0.236- 154 1.04 153 1.07
  46  0.119  0.040  0.338- 155 1.05 156 1.07
  47  0.883  0.385  0.591- 157 0.97 158 1.01
  48  0.442  0.592  0.141- 159 0.95 160 1.11
  49  0.794  0.108  0.854- 161 0.94 162 1.03
  50  0.486  0.331  0.816- 164 1.05 163 1.07
  51  0.335  0.519  0.325- 166 0.89 165 1.04
  52  0.018  0.546  0.393- 167 1.02 168 1.03
  53  0.578  0.421  0.209- 170 1.01 169 1.07
  54  0.633  0.868  0.495- 172 0.99 171 1.08
  55  0.157  0.961  0.122- 173 0.98 174 0.99
  56  0.476  0.618  0.753- 176 0.93 175 1.00
  57  0.230  0.814  0.690- 178 0.93 177 0.99
  58  0.144  0.737  0.304- 179 0.95 180 1.03
  59  0.232  0.078  0.895- 182 1.00 181 1.02
  60  0.626  0.219  0.973- 184 1.05 183 1.10
  61  0.278  0.341  0.175- 185 0.97 186 1.00
  62  0.162  0.521  0.779- 188 1.02 187 1.03
  63  0.965  0.191  0.407- 189 1.01 190 1.06
  64  0.866  0.735  0.858- 191 0.98 192 0.98
  65  0.952  0.328  0.804-   1 1.03
  66  0.080  0.316  0.773-   1 1.06
  67  0.709  0.639  0.592-   2 1.00
  68  0.636  0.739  0.540-   2 1.06
  69  0.217  0.255  0.431-   3 1.05
  70  0.166  0.178  0.343-   3 0.98
  71  0.493  0.627  0.522-   4 1.03
  72  0.392  0.575  0.437-   4 1.04
  73  0.343  0.786  0.974-   5 0.98
  74  0.314  0.731  0.087-   5 0.98
  75  0.692  0.624  0.065-   6 1.00
  76  0.772  0.710  0.107-   6 0.97
  77  0.299  0.088  0.584-   7 1.03
  78  0.288  0.955  0.566-   7 1.00
  79  0.217  0.307  0.648-   8 0.98
  80  0.228  0.396  0.554-   8 0.99
  81  0.391  0.210  0.592-   9 1.03
  82  0.427  0.198  0.721-   9 0.95
  83  0.420  0.357  0.451-  10 0.99
  84  0.477  0.259  0.383-  10 0.96
  85  0.515  0.690  0.883-  11 1.02
  86  0.590  0.725  0.992-  11 1.02
  87  0.401  0.521  0.852-  12 0.99
  88  0.425  0.429  0.949-  12 1.04
  89  0.573  0.896  0.236-  13 1.10
  90  0.666  0.859  0.141-  13 1.04
  91  0.927  0.483  0.928-  14 1.02
  92  0.898  0.377  0.007-  14 1.04
  93  0.539  0.327  0.568-  15 1.05
  94  0.650  0.278  0.609-  15 0.99
  95  0.817  0.693  0.267-  16 1.05
  96  0.891  0.804  0.273-  16 1.04
  97  0.173  0.188  0.007-  17 1.00
  98  0.041  0.179  0.035-  17 1.04
  99  0.846  0.994  0.299-  18 1.03
 100  0.751  0.019  0.203-  18 0.99
 101  0.612  0.686  0.335-  19 1.09
 102  0.521  0.684  0.227-  19 1.05
 103  0.678  0.454  0.713-  20 1.11
 104  0.769  0.502  0.792-  20 0.97
 105  0.264  0.829  0.325-  21 1.07
 106  0.400  0.802  0.317-  21 0.98
 107  0.619  0.059  0.613-  22 1.05
 108  0.492  0.067  0.666-  22 1.05
 109  0.763  0.318  0.216-  23 0.99
 110  0.831  0.210  0.163-  23 1.02
 111  0.371  0.938  0.202-  24 1.04
 112  0.291  0.012  0.116-  24 1.07
 113  0.632  0.092  0.455-  25 1.02
 114  0.694  0.201  0.452-  25 0.98
 115  0.242  0.631  0.550-  26 0.97
 116  0.168  0.560  0.626-  26 0.90
 117  0.777  0.864  0.410-  27 1.07
 118  0.907  0.888  0.467-  27 1.00
 119  0.927  0.950  0.634-  28 1.06
 120  0.838  0.865  0.668-  28 0.93
 121  0.861  0.273  0.377-  29 1.13
 122  0.800  0.362  0.465-  29 1.03
 123  0.649  0.910  0.771-  30 0.96
 124  0.747  0.961  0.819-  30 1.00
 125  0.028  0.153  0.682-  31 0.98
 126  0.093  0.068  0.609-  31 0.98
 127  0.018  0.555  0.756-  32 1.02
 128  0.904  0.633  0.772-  32 1.08
 129  0.173  0.714  0.960-  33 1.01
 130  0.053  0.664  0.954-  33 0.98
 131  0.307  0.331  0.868-  34 1.03
 132  0.237  0.215  0.843-  34 1.06
 133  0.485  0.964  0.933-  35 1.02
 134  0.560  0.971  0.043-  35 1.00
 135  0.648  0.522  0.941-  36 0.98
 136  0.726  0.424  0.980-  36 1.00
 137  0.497  0.081  0.322-  37 1.01
 138  0.432  0.984  0.393-  37 1.07
 139  0.031  0.940  0.771-  38 1.02
 140  0.023  0.829  0.849-  38 1.02
 141  0.915  0.043  0.975-  39 0.94
 142  0.917  0.051  0.105-  39 1.00
 143  0.457  0.834  0.857-  40 1.12
 144  0.339  0.869  0.778-  40 1.02
 145  0.777  0.624  0.424-  41 1.01
 146  0.733  0.520  0.364-  41 0.95
 147  0.944  0.644  0.094-  42 0.92
 148  0.975  0.522  0.103-  42 1.08
 149  0.074  0.348  0.146-  43 1.06
 150  0.032  0.447  0.257-  43 1.13
 151  0.879  0.654  0.623-  44 0.94
 152  0.866  0.757  0.547-  44 1.04
 153  0.396  0.274  0.218-  45 1.07
 154  0.425  0.137  0.198-  45 1.04
 155  0.120  0.994  0.264-  46 1.05
 156  0.152  0.990  0.405-  46 1.07
 157  0.887  0.446  0.643-  47 0.97
 158  0.927  0.324  0.628-  47 1.01
 159  0.396  0.566  0.082-  48 0.95
 160  0.496  0.521  0.163-  48 1.11
 161  0.814  0.170  0.811-  49 0.94
 162  0.713  0.116  0.882-  49 1.03
 163  0.535  0.295  0.882-  50 1.07
 164  0.536  0.356  0.750-  50 1.05
 165  0.298  0.443  0.304-  51 1.04
 166  0.356  0.548  0.260-  51 0.89
 167  0.967  0.506  0.448-  52 1.02
 168  0.084  0.568  0.443-  52 1.03
 169  0.575  0.335  0.232-  53 1.07
 170  0.633  0.430  0.147-  53 1.01
 171  0.612  0.912  0.570-  54 1.08
 172  0.584  0.896  0.434-  54 0.99
 173  0.084  0.977  0.091-  55 0.98
 174  0.187  0.897  0.079-  55 0.99
 175  0.555  0.591  0.750-  56 1.00
 176  0.450  0.613  0.680-  56 0.93
 177  0.196  0.740  0.697-  57 0.99
 178  0.178  0.861  0.722-  57 0.93
 179  0.160  0.676  0.256-  58 0.95
 180  0.071  0.709  0.337-  58 1.03
 181  0.296  0.023  0.884-  59 1.02
 182  0.163  0.033  0.908-  59 1.00
 183  0.668  0.231  0.053-  60 1.10
 184  0.570  0.154  0.985-  60 1.05
 185  0.240  0.349  0.104-  61 0.97
 186  0.231  0.291  0.223-  61 1.00
 187  0.203  0.459  0.821-  62 1.03
 188  0.163  0.590  0.829-  62 1.02
 189  0.013  0.129  0.375-  63 1.01
 190  0.025  0.244  0.445-  63 1.06
 191  0.812  0.786  0.826-  64 0.98
 192  0.815  0.707  0.915-  64 0.98
 

IMPORTANT INFORMATION: All symmetrisations will be switched off!
NOSYMM: (Re-)initialisation of all symmetry stuff for point group C_1.


----------------------------------------------------------------------------------------

                                     Primitive cell                                     

  volume of cell :    1736.9481

  direct lattice vectors                    reciprocal lattice vectors
    12.020677513  0.000000000  0.000000000     0.083189987  0.000000000  0.000000000
     0.000000000 12.020677513  0.000000000     0.000000000  0.083189987  0.000000000
     0.000000000  0.000000000 12.020677513     0.000000000  0.000000000  0.083189987

  length of vectors
    12.020677513 12.020677513 12.020677513     0.083189987  0.083189987  0.083189987

  position of ions in fractional coordinates (direct lattice)
     0.001098790  0.288054000  0.746380000
     0.632375000  0.654081000  0.562379000
     0.176726000  0.257542000  0.352729000
     0.412672000  0.596735000  0.518546000
     0.284415000  0.781828000  0.030071300
     0.710301000  0.704789000  0.056513200
     0.255962000  0.027562300  0.540396000
     0.234803000  0.314966000  0.569219000
     0.391809000  0.159488000  0.661637000
     0.460318000  0.285510000  0.456100000
     0.517808000  0.740811000  0.949815000
     0.390989000  0.506806000  0.933055000
     0.637558000  0.930184000  0.181015000
     0.883640000  0.411236000  0.928610000
     0.602509000  0.343418000  0.625330000
     0.868153000  0.742430000  0.216231000
     0.112228000  0.225659000  0.049462300
     0.828799000  0.032714900  0.224866000
     0.554479000  0.736832000  0.287988000
     0.692361000  0.521691000  0.773797000
     0.345967000  0.862903000  0.321905000
     0.564325000  0.017166700  0.667146000
     0.763476000  0.262033000  0.155646000
     0.374883000  0.004497470  0.146565000
     0.673398000  0.144782000  0.506329000
     0.170532000  0.593543000  0.559175000
     0.863371000  0.881537000  0.396340000
     0.891318000  0.872788000  0.612884000
     0.781704000  0.322564000  0.390961000
     0.726719000  0.892990000  0.775627000
     0.027030800  0.074996400  0.656296000
     0.936474000  0.559057000  0.731882000
     0.115915000  0.684140000  0.906122000
     0.230967000  0.303596000  0.839670000
     0.552383000  0.003739080  0.967048000
     0.665922000  0.474846000  0.005866910
     0.512683000  0.018314600  0.376360000
     0.060443500  0.905113000  0.841574000
     0.963050000  0.053547500  0.035462800
     0.389702000  0.896094000  0.840808000
     0.756243000  0.594404000  0.348157000
     0.959990000  0.588416000  0.043880600
     0.019065500  0.412626000  0.170904000
     0.852950000  0.671374000  0.551963000
     0.453862000  0.209076000  0.236418000
     0.119202000  0.039539500  0.338384000
     0.883303000  0.384895000  0.591258000
     0.442451000  0.592147000  0.140772000
     0.793755000  0.108388000  0.853691000
     0.486094000  0.330519000  0.816387000
     0.334694000  0.518861000  0.324561000
     0.017783000  0.546275000  0.393314000
     0.578046000  0.421214000  0.209388000
     0.633487000  0.868333000  0.494671000
     0.156973000  0.960529000  0.122066000
     0.476401000  0.618113000  0.752690000
     0.230125000  0.814157000  0.689651000
     0.144284000  0.737368000  0.303814000
     0.232239000  0.077791300  0.895024000
     0.625580000  0.219340000  0.972548000
     0.277799000  0.340579000  0.174648000
     0.162484000  0.521413000  0.779347000
     0.965326000  0.190970000  0.406606000
     0.866300000  0.734752000  0.858300000
     0.951770000  0.328216000  0.804393000
     0.080377900  0.316221000  0.773097000
     0.709160000  0.639365000  0.591878000
     0.635691000  0.739103000  0.540397000
     0.216937000  0.255354000  0.430678000
     0.166483000  0.177669000  0.342723000
     0.492860000  0.627124000  0.521645000
     0.391521000  0.574775000  0.437409000
     0.342867000  0.786411000  0.973859000
     0.314077000  0.731475000  0.086971400
     0.692202000  0.623952000  0.065315700
     0.772449000  0.710083000  0.107381000
     0.299251000  0.087641300  0.584063000
     0.287700000  0.955157000  0.565930000
     0.216541000  0.307060000  0.648175000
     0.228375000  0.395606000  0.554053000
     0.391177000  0.209511000  0.592474000
     0.427415000  0.197890000  0.720679000
     0.419650000  0.356569000  0.450796000
     0.477276000  0.258623000  0.382926000
     0.515366000  0.689867000  0.882509000
     0.589733000  0.724648000  0.991980000
     0.400730000  0.521252000  0.852398000
     0.424976000  0.428531000  0.948643000
     0.573020000  0.896139000  0.235593000
     0.666380000  0.859338000  0.141222000
     0.927346000  0.483497000  0.928105000
     0.897981000  0.377068000  0.007160000
     0.539206000  0.326648000  0.568017000
     0.649867000  0.278385000  0.609343000
     0.817339000  0.693149000  0.266843000
     0.891196000  0.804030000  0.272544000
     0.173340000  0.187719000  0.007271100
     0.040894200  0.178604000  0.035421800
     0.845725000  0.994145000  0.299438000
     0.750622000  0.018639900  0.203168000
     0.612115000  0.686111000  0.335492000
     0.520580000  0.683957000  0.226687000
     0.678195000  0.453775000  0.713057000
     0.768528000  0.501793000  0.792231000
     0.264295000  0.828559000  0.324748000
     0.399670000  0.801886000  0.317015000
     0.618747000  0.059083200  0.612557000
     0.492475000  0.066920700  0.666478000
     0.763477000  0.318414000  0.216078000
     0.830752000  0.210465000  0.163029000
     0.370894000  0.937946000  0.201952000
     0.291367000  0.011609900  0.116358000
     0.631935000  0.091927500  0.454517000
     0.694441000  0.201071000  0.451705000
     0.241650000  0.631160000  0.549749000
     0.168287000  0.559850000  0.625837000
     0.776757000  0.864419000  0.410307000
     0.906695000  0.888252000  0.467383000
     0.927268000  0.950280000  0.634098000
     0.837607000  0.864664000  0.667667000
     0.860512000  0.272579000  0.377482000
     0.800312000  0.361996000  0.464777000
     0.648691000  0.910244000  0.771111000
     0.747245000  0.960619000  0.818780000
     0.028268300  0.152717000  0.682216000
     0.092725200  0.068423300  0.608730000
     0.017914100  0.555004000  0.756428000
     0.904045000  0.632903000  0.772266000
     0.173145000  0.713964000  0.959558000
     0.053438900  0.663876000  0.954257000
     0.306761000  0.330585000  0.868273000
     0.236502000  0.215449000  0.843259000
     0.484880000  0.964291000  0.933147000
     0.559869000  0.971439000  0.042930000
     0.648447000  0.521976000  0.941303000
     0.726125000  0.423754000  0.980294000
     0.497309000  0.080625400  0.322434000
     0.431819000  0.984291000  0.392667000
     0.030592800  0.939881000  0.770562000
     0.023442000  0.829471000  0.848772000
     0.914628000  0.042984500  0.975256000
     0.917180000  0.051324900  0.105153000
     0.456825000  0.833978000  0.856707000
     0.338560000  0.868544000  0.778460000
     0.777153000  0.624246000  0.423653000
     0.732912000  0.520136000  0.363671000
     0.943935000  0.644210000  0.093623500
     0.974618000  0.522456000  0.102913000
     0.073624200  0.348209000  0.146216000
     0.031737100  0.447492000  0.256850000
     0.879035000  0.653551000  0.623191000
     0.865900000  0.756987000  0.546805000
     0.396179000  0.274326000  0.217535000
     0.425482000  0.137195000  0.198140000
     0.120250000  0.994019000  0.264164000
     0.152099000  0.990146000  0.404501000
     0.886858000  0.446169000  0.643213000
     0.926980000  0.323697000  0.628319000
     0.395896000  0.565930000  0.081983300
     0.495999000  0.520582000  0.162955000
     0.813640000  0.170455000  0.811145000
     0.713123000  0.115532000  0.882400000
     0.534888000  0.294809000  0.881807000
     0.536315000  0.356130000  0.749960000
     0.298099000  0.443498000  0.304077000
     0.356409000  0.548265000  0.260274000
     0.967481000  0.505952000  0.448072000
     0.083997400  0.568382000  0.443254000
     0.574632000  0.335002000  0.232292000
     0.632990000  0.429686000  0.146800000
     0.612349000  0.912216000  0.570207000
     0.584391000  0.895607000  0.434298000
     0.083645100  0.976860000  0.090926500
     0.187357000  0.897066000  0.078874300
     0.555443000  0.591163000  0.750221000
     0.449645000  0.612602000  0.680159000
     0.195519000  0.739927000  0.696563000
     0.177533000  0.861256000  0.721524000
     0.160243000  0.676003000  0.256445000
     0.070643200  0.708996000  0.337190000
     0.296048000  0.022709200  0.884425000
     0.163248000  0.032721300  0.908358000
     0.667893000  0.230743000  0.052816300
     0.569623000  0.153514000  0.984856000
     0.240461000  0.349279000  0.103913000
     0.231236000  0.290863000  0.223104000
     0.203056000  0.458735000  0.820979000
     0.163359000  0.589756000  0.828954000
     0.013035100  0.129158000  0.375086000
     0.024658100  0.243734000  0.445116000
     0.812336000  0.786155000  0.826248000
     0.814774000  0.707219000  0.914636000

  ion indices of the primitive-cell ions
   primitive index   ion index
                 1           1
                 2           2
                 3           3
                 4           4
                 5           5
                 6           6
                 7           7
                 8           8
                 9           9
                10          10
                11          11
                12          12
                13          13
                14          14
                15          15
                16          16
                17          17
                18          18
                19          19
                20          20
                21          21
                22          22
                23          23
                24          24
                25          25
                26          26
                27          27
                28          28
                29          29
                30          30
                31          31
                32          32
                33          33
                34          34
                35          35
                36          36
                37          37
                38          38
                39          39
                40          40
                41          41
                42          42
                43          43
                44          44
                45          45
                46          46
                47          47
                48          48
                49          49
                50          50
                51          51
                52          52
                53          53
                54          54
                55          55
                56          56
                57          57
                58          58
                59          59
                60          60
                61          61
                62          62
                63          63
                64          64
                65          65
                66          66
                67          67
                68          68
                69          69
                70          70
                71          71
                72          72
                73          73
                74          74
                75          75
                76          76
                77          77
                78          78
                79          79
                80          80
                81          81
                82          82
                83          83
                84          84
                85          85
                86          86
                87          87
                88          88
                89          89
                90          90
                91          91
                92          92
                93          93
                94          94
                95          95
                96          96
                97          97
                98          98
                99          99
               100         100
               101         101
               102         102
               103         103
               104         104
               105         105
               106         106
               107         107
               108         108
               109         109
               110         110
               111         111
               112         112
               113         113
               114         114
               115         115
               116         116
               117         117
               118         118
               119         119
               120         120
               121         121
               122         122
               123         123
               124         124
               125         125
               126         126
               127         127
               128         128
               129         129
               130         130
               131         131
               132         132
               133         133
               134         134
               135         135
               136         136
               137         137
               138         138
               139         139
               140         140
               141         141
               142         142
               143         143
               144         144
               145         145
               146         146
               147         147
               148         148
               149         149
               150         150
               151         151
               152         152
               153         153
               154         154
               155         155
               156         156
               157         157
               158         158
               159         159
               160         160
               161         161
               162         162
               163         163
               164         164
               165         165
               166         166
               167         167
               168         168
               169         169
               170         170
               171         171
               172         172
               173         173
               174         174
               175         175
               176         176
               177         177
               178         178
               179         179
               180         180
               181         181
               182         182
               183         183
               184         184
               185         185
               186         186
               187         187
               188         188
               189         189
               190         190
               191         191
               192         192

----------------------------------------------------------------------------------------

 
 
 KPOINTS: Automatic                               

Automatic generation of k-mesh.
 Grid dimensions read from file:
 generate k-points for:    1    1    1

 Generating k-lattice:

  Cartesian coordinates                     Fractional coordinates (reciprocal lattice)
     0.083189987  0.000000000  0.000000000     1.000000000  0.000000000  0.000000000
     0.000000000  0.083189987  0.000000000     0.000000000  1.000000000  0.000000000
     0.000000000  0.000000000  0.083189987     0.000000000  0.000000000  1.000000000

  Length of vectors
     0.083189987  0.083189987  0.083189987

  Shift w.r.t. Gamma in fractional coordinates (k-lattice)
     0.000000000  0.000000000  0.000000000

 
 Subroutine IBZKPT returns following result:
 ===========================================
 
 Found      1 irreducible k-points:
 
 Following reciprocal coordinates:
            Coordinates               Weight
  0.000000  0.000000  0.000000      1.000000
 
 Following cartesian coordinates:
            Coordinates               Weight
  0.000000  0.000000  0.000000      1.000000
 


--------------------------------------------------------------------------------------------------------




 Dimension of arrays:
   k-points           NKPTS =      1   k-points in BZ     NKDIM =      1   number of bands    NBANDS=    360
   number of dos      NEDOS =    301   number of ions     NIONS =    192
   non local maximal  LDIM  =      4   non local SUM 2l+1 LMDIM =      8
   total plane-waves  NPLWV = 592704
   max r-space proj   IRMAX =   1266   max aug-charges    IRDMAX=   4626
   dimension x,y,z NGX =    84 NGY =   84 NGZ =   84
   dimension x,y,z NGXF=   168 NGYF=  168 NGZF=  168
   support grid    NGXF=   168 NGYF=  168 NGZF=  168
   ions per type =              64 128
   NGX,Y,Z   is equivalent  to a cutoff of  11.62, 11.62, 11.62 a.u.
   NGXF,Y,Z  is equivalent  to a cutoff of  23.23, 23.23, 23.23 a.u.

 SYSTEM =  unknown system                          
 POSCAR =  O H                                     

 Startparameter for this run:
   NWRITE =      2    write-flag & timer
   PREC   = normal    normal or accurate (medium, high low for compatibility)
   ISTART =      0    job   : 0-new  1-cont  2-samecut
   ICHARG =      2    charge: 1-file 2-atom 10-const
   ISPIN  =      1    spin polarized calculation?
   LNONCOLLINEAR =      F non collinear calculations
   LSORBIT =      F    spin-orbit coupling
   INIWAV =      1    electr: 0-lowe 1-rand  2-diag
   LASPH  =      T    aspherical Exc in radial PAW
 Electronic Relaxation 1
   ENCUT  =  800.0 eV  58.80 Ry    7.67 a.u.  27.72 27.72 27.72*2*pi/ulx,y,z
   ENINI  =  800.0     initial cutoff
   ENAUG  =  605.4 eV  augmentation charge cutoff
   NELM   =     60;   NELMIN=  4; NELMDL= -5     # of ELM steps 
   EDIFF  = 0.1E-04   stopping-criterion for ELM
   LREAL  =      T    real-space projection
   NLSPLINE    = F    spline interpolate recip. space projectors
   LCOMPAT=      F    compatible to vasp.4.4
   GGA_COMPAT  = T    GGA compatible to vasp.4.4-vasp.4.6
   LMAXPAW     = -100 max onsite density
   LMAXMIX     =    2 max onsite mixed and CHGCAR
   VOSKOWN=      0    Vosko Wilk Nusair interpolation
   ROPT   =   -0.00050  -0.00050
 Ionic relaxation
   EDIFFG = 0.1E-03   stopping-criterion for IOM
   NSW    =  10000    number of steps for IOM
   NBLOCK =      1;   KBLOCK =  10000    inner block; outer block 
   IBRION =      0    ionic relax: 0-MD 1-quasi-New 2-CG
   NFREE  =      0    steps in history (QN), initial steepest desc. (CG)
   ISIF   =      3    stress and relaxation
   IWAVPR =     12    prediction:  0-non 1-charg 2-wave 3-comb
   ISYM   =      0    0-nonsym 1-usesym 2-fastsym
   LCORR  =      T    Harris-Foulkes like correction to forces

   POTIM  = 0.5000    time-step for ionic-motion
   TEIN   =  400.0    initial temperature
   TEBEG  =  400.0;   TEEND  = 400.0 temperature during run
   SMASS  =   0.10    Nose mass-parameter (am)
   estimated Nose-frequenzy (Omega)   =  0.16E+15 period in steps = 0.76E+02 mass=   0.107E-27a.u.
   SCALEE = 1.0000    scale energy and forces
   NPACO  =    256;   APACO  = 10.0  distance and # of slots for P.C.
   PSTRESS=    0.0 pullay stress

  Mass of Ions in am
   POMASS =  16.00  1.00
  Ionic Valenz
   ZVAL   =   6.00  1.00
  Atomic Wigner-Seitz radii
   RWIGS  =  -1.00 -1.00
  virtual crystal weights 
   VCA    =   1.00  1.00
   NELECT =     512.0000    total number of electrons
   NUPDOWN=      -1.0000    fix difference up-down

 DOS related values:
   EMIN   =  10.00;   EMAX   =-10.00  energy-range for DOS
   EFERMI =   0.00
   ISMEAR =     0;   SIGMA  =   0.05  broadening in eV -4-tet -1-fermi 0-gaus

 Electronic relaxation 2 (details)
   IALGO  =     68    algorithm
   LDIAG  =      T    sub-space diagonalisation (order eigenvalues)
   LSUBROT=      F    optimize rotation matrix (better conditioning)
   TURBO    =      0    0=normal 1=particle mesh
   IRESTART =      0    0=no restart 2=restart with 2 vectors
   NREBOOT  =      0    no. of reboots
   NMIN     =      0    reboot dimension
   EREF     =   0.00    reference energy to select bands
   IMIX   =      4    mixing-type and parameters
     AMIX     =   0.40;   BMIX     =  1.00
     AMIX_MAG =   1.60;   BMIX_MAG =  1.00
     AMIN     =   0.10
     WC   =   100.;   INIMIX=   1;  MIXPRE=   1;  MAXMIX= -45

 Intra band minimization:
   WEIMIN = 0.0010     energy-eigenvalue tresh-hold
   EBREAK =  0.69E-08  absolut break condition
   DEPER  =   0.30     relativ break condition  

   TIME   =   0.40     timestep for ELM

  volume/ion in A,a.u.               =       9.05        61.05
  Fermi-wavevector in a.u.,A,eV,Ry     =   1.089522  2.058897 16.150897  1.187057
  Thomas-Fermi vector in A             =   2.225727
 
 Write flags
   LWAVE        =      F    write WAVECAR
   LDOWNSAMPLE  =      F    k-point downsampling of WAVECAR
   LCHARG       =      F    write CHGCAR
   LVTOT        =      F    write LOCPOT, total local potential
   LVHAR        =      F    write LOCPOT, Hartree potential only
   LELF         =      F    write electronic localiz. function (ELF)
   LORBIT       =      0    0 simple, 1 ext, 2 COOP (PROOUT), +10 PAW based schemes


 Dipole corrections
   LMONO  =      F    monopole corrections only (constant potential shift)
   LDIPOL =      F    correct potential (dipole corrections)
   IDIPOL =      0    1-x, 2-y, 3-z, 4-all directions 
   EPSILON=  1.0000000 bulk dielectric constant

 Exchange correlation treatment:
   GGA     =    --    GGA type
   LEXCH   =     8    internal setting for exchange type
   LIBXC   =     F    Libxc                    
   VOSKOWN =     0    Vosko Wilk Nusair interpolation
   LHFCALC =     F    Hartree Fock is set to
   LHFONE  =     F    Hartree Fock one center treatment
   AEXX    =    0.0000 exact exchange contribution

 Linear response parameters
   LEPSILON=     F    determine dielectric tensor
   LRPA    =     F    only Hartree local field effects (RPA)
   LNABLA  =     F    use nabla operator in PAW spheres
   LVEL    =     F    velocity operator in full k-point grid
   CSHIFT  =0.1000    complex shift for real part using Kramers Kronig
   OMEGAMAX=  -1.0    maximum frequency
   DEG_THRESHOLD= 0.2000000E-02 threshold for treating states as degnerate
   RTIME   =   -0.100 relaxation time in fs
  (WPLASMAI=    0.000 imaginary part of plasma frequency in eV, 0.658/RTIME)
   DFIELD  = 0.0000000 0.0000000 0.0000000 field for delta impulse in time
 
  Optional k-point grid parameters
   LKPOINTS_OPT  =     F    use optional k-point grid
   KPOINTS_OPT_MODE=     1    mode for optional k-point grid
 
 Orbital magnetization related:
   ORBITALMAG=     F  switch on orbital magnetization
   LCHIMAG   =     F  perturbation theory with respect to B field
   DQ        =  0.001000  dq finite difference perturbation B field
   LLRAUG    =     F  two centre corrections for induced B field



--------------------------------------------------------------------------------------------------------


 molecular dynamics for ions
   using nose mass (canonical ensemble)
 charge density and potential will be updated during run
 non-spin polarized calculation
 RMM-DIIS sequential band-by-band and
  variant of blocked Davidson during initial phase
 perform sub-space diagonalisation
    before iterative eigenvector-optimisation
 modified Broyden-mixing scheme, WC =      100.0
 initial mixing is a Kerker type mixing with AMIX =  0.4000 and BMIX =      1.0000
 Hartree-type preconditioning will be used
 using additional bands           104
 real space projection scheme for non local part
 use partial core corrections
 calculate Harris-corrections to forces 
   (improved forces if not selfconsistent)
 use gradient corrections 
 use of overlap-Matrix (Vanderbilt PP)
 Gauss-broadening in eV      SIGMA  =   0.05


--------------------------------------------------------------------------------------------------------


  energy-cutoff  :      800.00
  volume of cell :     1736.95
      direct lattice vectors                 reciprocal lattice vectors
    12.020677513  0.000000000  0.000000000     0.083189987  0.000000000  0.000000000
     0.000000000 12.020677513  0.000000000     0.000000000  0.083189987  0.000000000
     0.000000000  0.000000000 12.020677513     0.000000000  0.000000000  0.083189987

  length of vectors
    12.020677513 12.020677513 12.020677513     0.083189987  0.083189987  0.083189987


 
 k-points in units of 2pi/SCALE and weight: Automatic                               
   0.00000000  0.00000000  0.00000000       1.000
 
 k-points in reciprocal lattice and weights: Automatic                               
   0.00000000  0.00000000  0.00000000       1.000
 
 position of ions in fractional coordinates (direct lattice) 
   0.00109879  0.28805400  0.74638000
   0.63237500  0.65408100  0.56237900
   0.17672600  0.25754200  0.35272900
   0.41267200  0.59673500  0.51854600
   0.28441500  0.78182800  0.03007130
   0.71030100  0.70478900  0.05651320
   0.25596200  0.02756230  0.54039600
   0.23480300  0.31496600  0.56921900
   0.39180900  0.15948800  0.66163700
   0.46031800  0.28551000  0.45610000
   0.51780800  0.74081100  0.94981500
   0.39098900  0.50680600  0.93305500
   0.63755800  0.93018400  0.18101500
   0.88364000  0.41123600  0.92861000
   0.60250900  0.34341800  0.62533000
   0.86815300  0.74243000  0.21623100
   0.11222800  0.22565900  0.04946230
   0.82879900  0.03271490  0.22486600
   0.55447900  0.73683200  0.28798800
   0.69236100  0.52169100  0.77379700
   0.34596700  0.86290300  0.32190500
   0.56432500  0.01716670  0.66714600
   0.76347600  0.26203300  0.15564600
   0.37488300  0.00449747  0.14656500
   0.67339800  0.14478200  0.50632900
   0.17053200  0.59354300  0.55917500
   0.86337100  0.88153700  0.39634000
   0.89131800  0.87278800  0.61288400
   0.78170400  0.32256400  0.39096100
   0.72671900  0.89299000  0.77562700
   0.02703080  0.07499640  0.65629600
   0.93647400  0.55905700  0.73188200
   0.11591500  0.68414000  0.90612200
   0.23096700  0.30359600  0.83967000
   0.55238300  0.00373908  0.96704800
   0.66592200  0.47484600  0.00586691
   0.51268300  0.01831460  0.37636000
   0.06044350  0.90511300  0.84157400
   0.96305000  0.05354750  0.03546280
   0.38970200  0.89609400  0.84080800
   0.75624300  0.59440400  0.34815700
   0.95999000  0.58841600  0.04388060
   0.01906550  0.41262600  0.17090400
   0.85295000  0.67137400  0.55196300
   0.45386200  0.20907600  0.23641800
   0.11920200  0.03953950  0.33838400
   0.88330300  0.38489500  0.59125800
   0.44245100  0.59214700  0.14077200
   0.79375500  0.10838800  0.85369100
   0.48609400  0.33051900  0.81638700
   0.33469400  0.51886100  0.32456100
   0.01778300  0.54627500  0.39331400
   0.57804600  0.42121400  0.20938800
   0.63348700  0.86833300  0.49467100
   0.15697300  0.96052900  0.12206600
   0.47640100  0.61811300  0.75269000
   0.23012500  0.81415700  0.68965100
   0.14428400  0.73736800  0.30381400
   0.23223900  0.07779130  0.89502400
   0.62558000  0.21934000  0.97254800
   0.27779900  0.34057900  0.17464800
   0.16248400  0.52141300  0.77934700
   0.96532600  0.19097000  0.40660600
   0.86630000  0.73475200  0.85830000
   0.95177000  0.32821600  0.80439300
   0.08037790  0.31622100  0.77309700
   0.70916000  0.63936500  0.59187800
   0.63569100  0.73910300  0.54039700
   0.21693700  0.25535400  0.43067800
   0.16648300  0.17766900  0.34272300
   0.49286000  0.62712400  0.52164500
   0.39152100  0.57477500  0.43740900
   0.34286700  0.78641100  0.97385900
   0.31407700  0.73147500  0.08697140
   0.69220200  0.62395200  0.06531570
   0.77244900  0.71008300  0.10738100
   0.29925100  0.08764130  0.58406300
   0.28770000  0.95515700  0.56593000
   0.21654100  0.30706000  0.64817500
   0.22837500  0.39560600  0.55405300
   0.39117700  0.20951100  0.59247400
   0.42741500  0.19789000  0.72067900
   0.41965000  0.35656900  0.45079600
   0.47727600  0.25862300  0.38292600
   0.51536600  0.68986700  0.88250900
   0.58973300  0.72464800  0.99198000
   0.40073000  0.52125200  0.85239800
   0.42497600  0.42853100  0.94864300
   0.57302000  0.89613900  0.23559300
   0.66638000  0.85933800  0.14122200
   0.92734600  0.48349700  0.92810500
   0.89798100  0.37706800  0.00716000
   0.53920600  0.32664800  0.56801700
   0.64986700  0.27838500  0.60934300
   0.81733900  0.69314900  0.26684300
   0.89119600  0.80403000  0.27254400
   0.17334000  0.18771900  0.00727110
   0.04089420  0.17860400  0.03542180
   0.84572500  0.99414500  0.29943800
   0.75062200  0.01863990  0.20316800
   0.61211500  0.68611100  0.33549200
   0.52058000  0.68395700  0.22668700
   0.67819500  0.45377500  0.71305700
   0.76852800  0.50179300  0.79223100
   0.26429500  0.82855900  0.32474800
   0.39967000  0.80188600  0.31701500
   0.61874700  0.05908320  0.61255700
   0.49247500  0.06692070  0.66647800
   0.76347700  0.31841400  0.21607800
   0.83075200  0.21046500  0.16302900
   0.37089400  0.93794600  0.20195200
   0.29136700  0.01160990  0.11635800
   0.63193500  0.09192750  0.45451700
   0.69444100  0.20107100  0.45170500
   0.24165000  0.63116000  0.54974900
   0.16828700  0.55985000  0.62583700
   0.77675700  0.86441900  0.41030700
   0.90669500  0.88825200  0.46738300
   0.92726800  0.95028000  0.63409800
   0.83760700  0.86466400  0.66766700
   0.86051200  0.27257900  0.37748200
   0.80031200  0.36199600  0.46477700
   0.64869100  0.91024400  0.77111100
   0.74724500  0.96061900  0.81878000
   0.02826830  0.15271700  0.68221600
   0.09272520  0.06842330  0.60873000
   0.01791410  0.55500400  0.75642800
   0.90404500  0.63290300  0.77226600
   0.17314500  0.71396400  0.95955800
   0.05343890  0.66387600  0.95425700
   0.30676100  0.33058500  0.86827300
   0.23650200  0.21544900  0.84325900
   0.48488000  0.96429100  0.93314700
   0.55986900  0.97143900  0.04293000
   0.64844700  0.52197600  0.94130300
   0.72612500  0.42375400  0.98029400
   0.49730900  0.08062540  0.32243400
   0.43181900  0.98429100  0.39266700
   0.03059280  0.93988100  0.77056200
   0.02344200  0.82947100  0.84877200
   0.91462800  0.04298450  0.97525600
   0.91718000  0.05132490  0.10515300
   0.45682500  0.83397800  0.85670700
   0.33856000  0.86854400  0.77846000
   0.77715300  0.62424600  0.42365300
   0.73291200  0.52013600  0.36367100
   0.94393500  0.64421000  0.09362350
   0.97461800  0.52245600  0.10291300
   0.07362420  0.34820900  0.14621600
   0.03173710  0.44749200  0.25685000
   0.87903500  0.65355100  0.62319100
   0.86590000  0.75698700  0.54680500
   0.39617900  0.27432600  0.21753500
   0.42548200  0.13719500  0.19814000
   0.12025000  0.99401900  0.26416400
   0.15209900  0.99014600  0.40450100
   0.88685800  0.44616900  0.64321300
   0.92698000  0.32369700  0.62831900
   0.39589600  0.56593000  0.08198330
   0.49599900  0.52058200  0.16295500
   0.81364000  0.17045500  0.81114500
   0.71312300  0.11553200  0.88240000
   0.53488800  0.29480900  0.88180700
   0.53631500  0.35613000  0.74996000
   0.29809900  0.44349800  0.30407700
   0.35640900  0.54826500  0.26027400
   0.96748100  0.50595200  0.44807200
   0.08399740  0.56838200  0.44325400
   0.57463200  0.33500200  0.23229200
   0.63299000  0.42968600  0.14680000
   0.61234900  0.91221600  0.57020700
   0.58439100  0.89560700  0.43429800
   0.08364510  0.97686000  0.09092650
   0.18735700  0.89706600  0.07887430
   0.55544300  0.59116300  0.75022100
   0.44964500  0.61260200  0.68015900
   0.19551900  0.73992700  0.69656300
   0.17753300  0.86125600  0.72152400
   0.16024300  0.67600300  0.25644500
   0.07064320  0.70899600  0.33719000
   0.29604800  0.02270920  0.88442500
   0.16324800  0.03272130  0.90835800
   0.66789300  0.23074300  0.05281630
   0.56962300  0.15351400  0.98485600
   0.24046100  0.34927900  0.10391300
   0.23123600  0.29086300  0.22310400
   0.20305600  0.45873500  0.82097900
   0.16335900  0.58975600  0.82895400
   0.01303510  0.12915800  0.37508600
   0.02465810  0.24373400  0.44511600
   0.81233600  0.78615500  0.82624800
   0.81477400  0.70721900  0.91463600
 
 position of ions in cartesian coordinates  (Angst):
   0.01320820  3.46260424  8.97199328
   7.60157594  7.86249677  6.76017660
   2.12436625  3.09582933  4.24004156
   4.96059703  7.17315900  6.23327424
   3.41886099  9.39810226  0.36147740
   8.53829926  8.47204128  0.67932695
   3.07683666  0.33131752  6.49592605
   2.82249114  3.78610471  6.84239803
   4.70980964  1.91715382  7.95332501
   5.53333423  3.43202364  5.48263101
   6.22440298  8.90505013 11.41741981
   4.69995268  6.09215149 11.21595326
   7.66387911 11.18144189  2.17592294
  10.62195148  4.94333534 11.16252134
   7.24256639  4.12811703  7.51689027
  10.43578724  8.92451161  2.59924312
   1.34905660  2.71257407  0.59457036
   9.96272550  0.39325526  2.70304167
   6.66521325  8.85721985  3.46181088
   8.32264830  6.27107927  9.30156420
   4.15875774 10.37267869  3.86951619
   6.78356884  0.20635536  8.01954692
   9.17749878  3.14981419  1.87097037
   4.50634765  0.05406264  1.76181060
   8.09470020  1.74037773  6.08641762
   2.04991018  7.13478899  6.72166235
  10.37830436 10.59667199  4.76427533
  10.71424624 10.49150308  7.36728092
   9.39661169  3.87743782  4.69961610
   8.73565474 10.73434481  9.32356204
   0.32492853  0.90150754  7.88912257
  11.25705195  6.72024391  8.79771750
   1.39337683  8.22382631 10.89220035
   2.77637982  3.64942961 10.09340229
   6.64001791  0.04494627 11.62457215
   8.00483361  5.70797063  0.07052423
   6.16279701  0.22015390  4.52410219
   0.72657182 10.88007149 10.11628966
  11.57651348  0.64367723  0.42628688
   4.68448207 10.77165699 10.10708182
   9.09055322  7.14513880  4.18508302
  11.53973021  7.07315898  0.52747454
   0.22918023  4.96004408  2.05438187
  10.25303688  8.07037034  6.63496922
   5.45572874  2.51323517  2.84190454
   1.43288880  0.47529158  4.06760494
  10.61790051  4.62669867  7.10732174
   5.31856079  7.11800813  1.69217481
   9.54147288  1.30289719 10.26194421
   5.84317921  3.97306231  9.81352485
   4.02324864  6.23706075  3.90144311
   0.21376371  6.56659561  4.72790076
   6.94850455  5.06327766  2.51698562
   7.61494294 10.43795097  5.94628057
   1.88692181 11.54620935  1.46731602
   5.72666279  7.43013704  9.04784376
   2.76625841  9.78671874  8.29007227
   1.73439143  8.86366294  3.65205012
   2.79167012  0.93510413 10.75879487
   7.51989544  2.63661541 11.69068587
   3.33933219  4.09399033  2.09938729
   1.95316776  6.26773752  9.36827896
  11.60387254  2.29558878  4.88767960
  10.41351293  8.83221684 10.31734751
  11.44092024  3.94537869  9.66934885
   0.96619681  3.80119066  9.29314972
   8.52458366  7.68560048  7.11477456
   7.64143651  8.88451881  6.49593807
   2.60772972  3.06952809  5.17704135
   2.00123845  2.13570175  4.11976266
   5.92451112  7.53845536  6.27052632
   4.70634768  6.90918492  5.25795253
   4.12149364  9.45319302 11.70644498
   3.77541833  8.79282508  1.04545515
   8.32073702  7.50032578  0.78513897
   9.28536032  8.53567875  1.29079237
   3.59719977  1.05350780  7.02083297
   3.45834892 11.48163427  6.80286202
   2.60296953  3.69106924  7.79150265
   2.74522223  4.75545215  6.66009244
   4.70221257  2.51846417  7.12193889
   5.13781788  2.37877187  8.66304985
   5.04447732  4.28620096  5.41887334
   5.73718088  3.10882368  4.60302996
   6.19504849  8.29266873 10.60835609
   7.08899021  8.71075992 11.92427168
   4.81704610  6.26580219 10.24640147
   5.10849945  5.15123296 11.40333158
   6.88808863 10.77219793  2.83198748
   8.01033908 10.32982497  1.69758412
  11.14732721  5.81196152 11.15645090
  10.79434001  4.53261283  0.08606805
   6.48162144  3.92653027  6.82794918
   7.81184163  3.34637631  7.32471570
   9.82496854  8.33212060  3.20763365
  10.71277972  9.66498534  3.27616353
   2.08366424  2.25650956  0.08740355
   0.49157599  2.14694109  0.42579403
  10.16618749 11.95029645  3.59944763
   9.02298500  0.22406423  2.44221701
   7.35803702  8.24751907  4.03284114
   6.25772430  8.22162653  2.72493132
   8.15236339  5.45468294  8.57142825
   9.23822725  6.03189183  9.52315337
   3.17700496  9.95984054  3.90369098
   4.80430418  9.63921301  3.81073508
   7.43775815  0.71022009  7.36335016
   5.91988316  0.80443215  8.01151711
   9.17751081  3.82755201  2.59740396
   9.98620188  2.52993189  1.95971903
   4.45839717 11.27474639  2.42759986
   3.50242874  0.13955886  1.39870199
   7.59628684  1.10503083  5.46360228
   8.34765131  2.41700965  5.42980014
   2.90479672  7.58697082  6.60835544
   2.02292376  6.72977631  7.52298475
   9.33714540 10.39090203  4.93216813
  10.89908820 10.67739084  5.61826032
  11.14638960 11.42300943  7.62228757
  10.06860363 10.39384710  8.02580969
  10.34393725  3.27658426  4.53758939
   9.62029246  4.35143718  5.58693443
   7.79770532 10.94174958  9.26927666
   8.98239117 11.54729121  9.84229033
   0.33980412  1.83576181  8.20069853
   1.11461973  0.82249442  7.31734702
   0.21533962  6.67152410  9.09277705
  10.86723340  7.60792286  9.28316054
   2.08132021  8.58233100 11.53453727
   0.64237178  7.98023930 11.47081566
   3.68747505  3.97385568 10.43722973
   2.84291427  2.58984295 10.13654450
   5.82858611 11.59143114 11.21705916
   6.73000470 11.67735494  0.51604769
   7.79477227  6.27450517 11.31509980
   8.72851446  5.09381018 11.78379804
   5.97799111  0.96917193  3.87587513
   5.19075694 11.83184469  4.72012338
   0.36774618 11.29800640  9.26267731
   0.28178872  9.97080340 10.20281449
  10.99444823  0.51670281 11.72323787
  11.02512500  0.61696007  1.26401030
   5.49134600 10.02498059 10.29819857
   4.06972058 10.44048733  9.35761662
   9.34190559  7.50385985  5.09259609
   8.81009880  6.25238712  4.37157181
  11.34673823  7.74384066  1.12541790
  11.71556868  6.28027509  1.23708398
   0.88501277  4.18570810  1.75761538
   0.38150144  5.37915702  3.08751102
  10.56659626  7.85612581  7.49117804
  10.40870466  9.09949661  6.57296657
   4.76234000  3.29758438  2.61491808
   5.11458191  1.64917685  2.38177704
   1.44548647 11.94878184  3.17543025
   1.82833303 11.90222576  4.86237607
  10.66063402  5.36325367  7.73185604
  11.14292764  3.89105725  7.55282007
   4.75893814  6.80286202  0.98549481
   5.96224403  6.25774834  1.95882950
   9.78050405  2.04898459  9.75051246
   8.57222161  1.38877291 10.60704584
   6.42971615  3.54380392 10.59991758
   6.44686966  4.28092388  9.01502731
   3.58335195  5.33114644  3.65521156
   4.28427765  6.59051676  3.12866982
  11.62977710  6.08188583  5.38612901
   1.00970566  6.83233673  5.32821339
   6.90746596  4.02695101  2.79230722
   7.60896866  5.16511684  1.76463546
   7.36084985 10.96545436  6.85427446
   7.02477575 10.76580293  5.22055620
   1.00547077 11.74251903  1.09299813
   2.25215808 10.78334109  0.94812252
   6.67680118  7.10617978  9.01816470
   5.40503754  7.36389109  8.17597200
   2.35027085  8.89442385  8.37315919
   2.13406694 10.35288063  8.67320732
   1.92622943  8.12601406  3.08264264
   0.84917913  8.52261227  4.05325225
   3.55869754  0.27297997 10.63138771
   1.96235156  0.39333220 10.91907858
   8.02852637  2.77368719  0.63488771
   6.84725439  1.84534229 11.83863637
   2.89050414  4.19857022  1.24910466
   2.77961339  3.49637032  2.68186124
   2.44087069  5.51430550  9.86872380
   1.96368586  7.08926669  9.96458871
   0.15669073  1.55256667  4.50878785
   0.29640707  2.92984781  5.35059589
   9.76482909  9.45011573  9.93206075
   9.79413550  8.50125153 10.99454440
 


--------------------------------------------------------------------------------------------------------


 k-point   1 :   0.0000 0.0000 0.0000  plane waves:   88959

 maximum and minimum number of plane-waves per node :     88959    88959

 maximum number of plane-waves:     88959
 maximum index in each direction: 
   IXMAX=   27   IYMAX=   27   IZMAX=   27
   IXMIN=  -27   IYMIN=  -27   IZMIN=  -27


 serial   3D FFT for wavefunctions
 parallel 3D FFT for charge:
    minimum data exchange during FFTs selected (reduces bandwidth)


 total amount of memory used by VASP MPI-rank0   214533. kBytes
=======================================================================

   base      :      30000. kBytes
   nonlr-proj:      15433. kBytes
   fftplans  :      22573. kBytes
   grid      :      81058. kBytes
   one-center:        589. kBytes
   wavefun   :      64880. kBytes
 
     INWAV:  cpu time      0.0001: real time      0.0001
 Broyden mixing: mesh for mixing (old mesh)
   NGX = 55   NGY = 55   NGZ = 55
  (NGX  =168   NGY  =168   NGZ  =168)
  gives a total of 166375 points

 initial charge density was supplied:
 charge density of overlapping atoms calculated
 number of electron     512.0000000 magnetization 
 keeping initial charge density in first step


--------------------------------------------------------------------------------------------------------


 Maximum index for non-local projection operator          1194
 Maximum index for augmentation-charges           559 (set IRDMAX)


--------------------------------------------------------------------------------------------------------


 First call to EWALD:  gamma=   0.147
 Maximum number of real-space cells 3x 3x 3
 Maximum number of reciprocal cells 3x 3x 3

    FEWALD:  cpu time      0.0286: real time      0.0286


--------------------------------------- Iteration      1(   1)  ---------------------------------------


    POTLOK:  cpu time      0.2646: real time      0.3232
    SETDIJ:  cpu time      3.5576: real time      3.5650
     EDDAV:  cpu time      4.7306: real time      4.7376
       DOS:  cpu time      0.0012: real time      0.0012
    --------------------------------------------
      LOOP:  cpu time      8.5540: real time      8.6270

 eigenvalue-minimisations  :   720
 total energy-change (2. order) : 0.3607356E+04  (-0.3154971E+05)
 number of electron     512.0000000 magnetization 
 augmentation part      512.0000000 magnetization 

 Free energy of the ion-electron system (eV)
  ---------------------------------------------------
  alpha Z        PSCENC =       528.82022372
  Ewald energy   TEWEN  =    -14157.97432075
  -Hartree energ DENC   =    -11923.84062306
  -exchange      EXHF   =         0.00000000
  -V(xc)+E(xc)   XCENC  =      2414.97253908
  PAW double counting   =     22087.91116300   -22279.94937620
  entropy T*S    EENTRO =        -0.02303712
  eigenvalues    EBANDS =     -2333.02631869
  atomic energy  EATOM  =     29270.46600128
  Solvation  Ediel_sol  =         0.00000000
  ---------------------------------------------------
  free energy    TOTEN  =      3607.35625125 eV

  energy without entropy =     3607.37928837  energy(sigma->0) =     3607.36776981


--------------------------------------------------------------------------------------------------------




--------------------------------------- Iteration      1(   2)  ---------------------------------------


     EDDAV:  cpu time      5.3923: real time      5.3858
       DOS:  cpu time      0.0006: real time      0.0006
    --------------------------------------------
      LOOP:  cpu time      5.3930: real time      5.3864

 eigenvalue-minimisations  :   880
 total energy-change (2. order) :-0.4425578E+04  (-0.4267007E+04)
 number of electron     512.0000000 magnetization 
 augmentation part      512.0000000 magnetization 

 Free energy of the ion-electron system (eV)
  ---------------------------------------------------
  alpha Z        PSCENC =       528.82022372
  Ewald energy   TEWEN  =    -14157.97432075
  -Hartree energ DENC   =    -11923.84062306
  -exchange      EXHF   =         0.00000000
  -V(xc)+E(xc)   XCENC  =      2414.97253908
  PAW double counting   =     22087.91116300   -22279.94937620
  entropy T*S    EENTRO =        -0.00000000
  eigenvalues    EBANDS =     -6758.62688020
  atomic energy  EATOM  =     29270.46600128
  Solvation  Ediel_sol  =         0.00000000
  ---------------------------------------------------
  free energy    TOTEN  =      -818.22127315 eV

  energy without entropy =     -818.22127315  energy(sigma->0) =     -818.22127315


--------------------------------------------------------------------------------------------------------




--------------------------------------- Iteration      1(   3)  ---------------------------------------


     EDDAV:  cpu time      5.3249: real time      5.3150
       DOS:  cpu time      0.0007: real time      0.0007
    --------------------------------------------
      LOOP:  cpu time      5.3256: real time      5.3157

 eigenvalue-minimisations  :   864
 total energy-change (2. order) :-0.4312595E+03  (-0.4283386E+03)
 number of electron     512.0000000 magnetization 
 augmentation part      512.0000000 magnetization 

 Free energy of the ion-electron system (eV)
  ---------------------------------------------------
  alpha Z        PSCENC =       528.82022372
  Ewald energy   TEWEN  =    -14157.97432075
  -Hartree energ DENC   =    -11923.84062306
  -exchange      EXHF   =         0.00000000
  -V(xc)+E(xc)   XCENC  =      2414.97253908
  PAW double counting   =     22087.91116300   -22279.94937620
  entropy T*S    EENTRO =        -0.00000000
  eigenvalues    EBANDS =     -7189.88633149
  atomic energy  EATOM  =     29270.46600128
  Solvation  Ediel_sol  =         0.00000000
  ---------------------------------------------------
  free energy    TOTEN  =     -1249.48072443 eV

  energy without entropy =    -1249.48072443  energy(sigma->0) =    -1249.48072443


--------------------------------------------------------------------------------------------------------




--------------------------------------- Iteration      1(   4)  ---------------------------------------


     EDDAV:  cpu time      5.3157: real time      5.3044
       DOS:  cpu time      0.0004: real time      0.0004
    --------------------------------------------
      LOOP:  cpu time      5.3161: real time      5.3047

 eigenvalue-minimisations  :   864
 total energy-change (2. order) :-0.6938432E+01  (-0.6916755E+01)
 number of electron     512.0000000 magnetization 
 augmentation part      512.0000000 magnetization 

 Free energy of the ion-electron system (eV)
  ---------------------------------------------------
  alpha Z        PSCENC =       528.82022372
  Ewald energy   TEWEN  =    -14157.97432075
  -Hartree energ DENC   =    -11923.84062306
  -exchange      EXHF   =         0.00000000
  -V(xc)+E(xc)   XCENC  =      2414.97253908
  PAW double counting   =     22087.91116300   -22279.94937620
  entropy T*S    EENTRO =        -0.00000000
  eigenvalues    EBANDS =     -7196.82476330
  atomic energy  EATOM  =     29270.46600128
  Solvation  Ediel_sol  =         0.00000000
  ---------------------------------------------------
  free energy    TOTEN  =     -1256.41915624 eV

  energy without entropy =    -1256.41915624  energy(sigma->0) =    -1256.41915624


--------------------------------------------------------------------------------------------------------




--------------------------------------- Iteration      1(   5)  ---------------------------------------


     EDDAV:  cpu time      5.3771: real time      5.3625
       DOS:  cpu time      0.0006: real time      0.0006
    CHARGE:  cpu time      0.4474: real time      0.4520
    MIXING:  cpu time      0.0085: real time      0.0085
    --------------------------------------------
      LOOP:  cpu time      5.8335: real time      5.8237

 eigenvalue-minimisations  :   880
 total energy-change (2. order) :-0.1265872E+00  (-0.1264690E+00)
 number of electron     512.0000038 magnetization 
 augmentation part       49.5140223 magnetization 

 Broyden mixing:
  rms(total) = 0.52232E+01    rms(broyden)= 0.52230E+01
  rms(prec ) = 0.64086E+01
  weight for this iteration     100.00

 Free energy of the ion-electron system (eV)
  ---------------------------------------------------
  alpha Z        PSCENC =       528.82022372
  Ewald energy   TEWEN  =    -14157.97432075
  -Hartree energ DENC   =    -11923.84062306
  -exchange      EXHF   =         0.00000000
  -V(xc)+E(xc)   XCENC  =      2414.97253908
  PAW double counting   =     22087.91116300   -22279.94937620
  entropy T*S    EENTRO =        -0.00000000
  eigenvalues    EBANDS =     -7196.95135049
  atomic energy  EATOM  =     29270.46600128
  Solvation  Ediel_sol  =         0.00000000
  ---------------------------------------------------
  free energy    TOTEN  =     -1256.54574344 eV

  energy without entropy =    -1256.54574344  energy(sigma->0) =    -1256.54574344


--------------------------------------------------------------------------------------------------------




--------------------------------------- Iteration      1(   6)  ---------------------------------------


    POTLOK:  cpu time      0.2379: real time      0.2380
    SETDIJ:  cpu time      3.5938: real time      3.6014
    EDDIAG:  cpu time      0.8199: real time      0.8291
  RMM-DIIS:  cpu time      1.7786: real time      1.7678
    ORTHCH:  cpu time      0.4479: real time      0.4497
       DOS:  cpu time      0.0010: real time      0.0008
    CHARGE:  cpu time      0.4417: real time      0.4458
    MIXING:  cpu time      0.0076: real time      0.0077
    --------------------------------------------
      LOOP:  cpu time      7.3284: real time      7.3403

 eigenvalue-minimisations  :   720
 total energy-change (2. order) : 0.2609662E+03  (-0.1357966E+02)
 number of electron     512.0000035 magnetization 
 augmentation part       45.7619708 magnetization 

 Broyden mixing:
  rms(total) = 0.21220E+01    rms(broyden)= 0.21220E+01
  rms(prec ) = 0.24823E+01
  weight for this iteration     100.00

 eigenvalues of (default mixing * dielectric matrix)
  average eigenvalue GAMMA=   1.2794
  1.2794

 Free energy of the ion-electron system (eV)
  ---------------------------------------------------
  alpha Z        PSCENC =       528.82022372
  Ewald energy   TEWEN  =    -14157.97432075
  -Hartree energ DENC   =    -12987.35453898
  -exchange      EXHF   =         0.00000000
  -V(xc)+E(xc)   XCENC  =      2589.87518225
  PAW double counting   =     27492.03528470   -27694.32575743
  entropy T*S    EENTRO =        -0.00000000
  eigenvalues    EBANDS =     -6037.12158967
  atomic energy  EATOM  =     29270.46600128
  Solvation  Ediel_sol  =         0.00000000
  ---------------------------------------------------
  free energy    TOTEN  =      -995.57951489 eV

  energy without entropy =     -995.57951489  energy(sigma->0) =     -995.57951489


--------------------------------------------------------------------------------------------------------




--------------------------------------- Iteration      1(   7)  ---------------------------------------


    POTLOK:  cpu time      0.2316: real time      0.2279
    SETDIJ:  cpu time      3.5845: real time      3.5920
    EDDIAG:  cpu time      0.8315: real time      0.8358
  RMM-DIIS:  cpu time      1.7109: real time      1.7029
    ORTHCH:  cpu time      0.4611: real time      0.4636
       DOS:  cpu time      0.0005: real time      0.0005
    CHARGE:  cpu time      0.4368: real time      0.4373
    MIXING:  cpu time      0.0077: real time      0.0077
    --------------------------------------------
      LOOP:  cpu time      7.2646: real time      7.2676

 eigenvalue-minimisations  :   720
 total energy-change (2. order) :-0.4726725E+01  (-0.6048210E+01)
 number of electron     512.0000033 magnetization 
 augmentation part       43.4780829 magnetization 

 Broyden mixing:
  rms(total) = 0.14411E+01    rms(broyden)= 0.14411E+01
  rms(prec ) = 0.15706E+01
  weight for this iteration     100.00

 eigenvalues of (default mixing * dielectric matrix)
  average eigenvalue GAMMA=   2.0753
  1.8572  2.2933

 Free energy of the ion-electron system (eV)
  ---------------------------------------------------
  alpha Z        PSCENC =       528.82022372
  Ewald energy   TEWEN  =    -14157.97432075
  -Hartree energ DENC   =    -13421.28177939
  -exchange      EXHF   =         0.00000000
  -V(xc)+E(xc)   XCENC  =      2608.06791526
  PAW double counting   =     31307.33671280   -31514.19552723
  entropy T*S    EENTRO =        -0.00000000
  eigenvalues    EBANDS =     -5621.54546556
  atomic energy  EATOM  =     29270.46600128
  Solvation  Ediel_sol  =         0.00000000
  ---------------------------------------------------
  free energy    TOTEN  =     -1000.30623987 eV

  energy without entropy =    -1000.30623987  energy(sigma->0) =    -1000.30623987


--------------------------------------------------------------------------------------------------------




--------------------------------------- Iteration      1(   8)  ---------------------------------------


    POTLOK:  cpu time      0.2326: real time      0.2290
    SETDIJ:  cpu time      3.6052: real time      3.6128
    EDDIAG:  cpu time      0.8439: real time      0.8475
  RMM-DIIS:  cpu time      1.7125: real time      1.7036
    ORTHCH:  cpu time      0.4079: real time      0.4109
       DOS:  cpu time      0.0004: real time      0.0004
    CHARGE:  cpu time      0.4390: real time      0.4394
    MIXING:  cpu time      0.0083: real time      0.0083
    --------------------------------------------
      LOOP:  cpu time      7.2499: real time      7.2520

 eigenvalue-minimisations  :   720
 total energy-change (2. order) :-0.4132771E+01  (-0.2258804E+01)
 number of electron     512.0000034 magnetization 
 augmentation part       45.2490557 magnetization 

 Broyden mixing:
  rms(total) = 0.11314E+01    rms(broyden)= 0.11314E+01
  rms(prec ) = 0.13393E+01
  weight for this iteration     100.00

 eigenvalues of (default mixing * dielectric matrix)
  average eigenvalue GAMMA=   1.6027
  2.5829  1.1126  1.1126

 Free energy of the ion-electron system (eV)
  ---------------------------------------------------
  alpha Z        PSCENC =       528.82022372
  Ewald energy   TEWEN  =    -14157.97432075
  -Hartree energ DENC   =    -13207.83683835
  -exchange      EXHF   =         0.00000000
  -V(xc)+E(xc)   XCENC  =      2594.08098033
  PAW double counting   =     33989.31204867   -34190.71413593
  entropy T*S    EENTRO =        -0.00000000
  eigenvalues    EBANDS =     -5830.59297013
  atomic energy  EATOM  =     29270.46600128
  Solvation  Ediel_sol  =         0.00000000
  ---------------------------------------------------
  free energy    TOTEN  =     -1004.43901117 eV

  energy without entropy =    -1004.43901117  energy(sigma->0) =    -1004.43901117


--------------------------------------------------------------------------------------------------------




--------------------------------------- Iteration      1(   9)  ---------------------------------------


    POTLOK:  cpu time      0.2311: real time      0.2277
    SETDIJ:  cpu time      3.6006: real time      3.6073
    EDDIAG:  cpu time      0.8063: real time      0.8097
  RMM-DIIS:  cpu time      1.7155: real time      1.7074
    ORTHCH:  cpu time      0.4281: real time      0.4299
       DOS:  cpu time      0.0005: real time      0.0005
    CHARGE:  cpu time      0.4357: real time      0.4361
    MIXING:  cpu time      0.0083: real time      0.0082
    --------------------------------------------
      LOOP:  cpu time      7.2260: real time      7.2267

 eigenvalue-minimisations  :   720
 total energy-change (2. order) : 0.3621301E+01  (-0.8507248E+00)
 number of electron     512.0000034 magnetization 
 augmentation part       44.2381755 magnetization 

 Broyden mixing:
  rms(total) = 0.15277E+00    rms(broyden)= 0.15275E+00
  rms(prec ) = 0.18137E+00
  weight for this iteration     100.00

 eigenvalues of (default mixing * dielectric matrix)
  average eigenvalue GAMMA=   1.4530
  2.5005  0.9952  1.1581  1.1581

 Free energy of the ion-electron system (eV)
  ---------------------------------------------------
  alpha Z        PSCENC =       528.82022372
  Ewald energy   TEWEN  =    -14157.97432075
  -Hartree energ DENC   =    -13458.34464713
  -exchange      EXHF   =         0.00000000
  -V(xc)+E(xc)   XCENC  =      2614.92107080
  PAW double counting   =     34594.93864714   -34800.41458704
  entropy T*S    EENTRO =        -0.00000000
  eigenvalues    EBANDS =     -5593.23009852
  atomic energy  EATOM  =     29270.46600128
  Solvation  Ediel_sol  =         0.00000000
  ---------------------------------------------------
  free energy    TOTEN  =     -1000.81771052 eV

  energy without entropy =    -1000.81771052  energy(sigma->0) =    -1000.81771052


--------------------------------------------------------------------------------------------------------




--------------------------------------- Iteration      1(  10)  ---------------------------------------


    POTLOK:  cpu time      0.2325: real time      0.2290
    SETDIJ:  cpu time      3.5821: real time      3.5896
    EDDIAG:  cpu time      0.8068: real time      0.8091
  RMM-DIIS:  cpu time      1.7097: real time      1.7035
    ORTHCH:  cpu time      0.4263: real time      0.4281
       DOS:  cpu time      0.0005: real time      0.0005
    CHARGE:  cpu time      0.4356: real time      0.4360
    MIXING:  cpu time      0.0086: real time      0.0086
    --------------------------------------------
      LOOP:  cpu time      7.2021: real time      7.2044

 eigenvalue-minimisations  :   720
 total energy-change (2. order) :-0.1398538E+00  (-0.2060292E+00)
 number of electron     512.0000033 magnetization 
 augmentation part       43.8628218 magnetization 

 Broyden mixing:
  rms(total) = 0.13566E+00    rms(broyden)= 0.13564E+00
  rms(prec ) = 0.15961E+00
  weight for this iteration     100.00

 eigenvalues of (default mixing * dielectric matrix)
  average eigenvalue GAMMA=   1.5513
[...]
   0.389E+02 -.410E+02 -.103E+02   -.422E+02 0.443E+02 0.125E+02   0.454E+01 -.433E+01 -.302E+01   0.806E-04 0.128E-03 0.357E-03
   -.216E+02 0.613E+02 0.424E+02   0.237E+02 -.668E+02 -.455E+02   -.246E+01 0.638E+01 0.388E+01   0.988E-05 -.195E-03 -.212E-03
   0.639E+02 0.105E+02 -.337E+02   -.739E+02 -.137E+02 0.387E+02   0.843E+01 0.252E+01 -.407E+01   -.498E-04 -.149E-03 -.136E-03
   -.594E+02 0.409E+02 0.217E+01   0.682E+02 -.485E+02 -.247E+01   -.728E+01 0.636E+01 0.142E+00   0.118E-03 0.122E-03 0.145E-03
   0.631E+02 0.348E+02 -.203E+02   -.721E+02 -.405E+02 0.233E+02   0.767E+01 0.486E+01 -.290E+01   0.901E-04 0.721E-04 0.158E-03
   -.304E+02 -.698E+01 -.696E+02   0.377E+02 0.101E+02 0.836E+02   -.477E+01 -.166E+01 -.984E+01   -.189E-03 -.561E-04 -.235E-03
   0.485E+02 0.528E+02 -.183E+02   -.558E+02 -.633E+02 0.201E+02   0.554E+01 0.800E+01 -.192E+01   -.104E-03 -.150E-03 -.116E-04
   0.279E+02 -.156E+02 0.743E+02   -.315E+02 0.162E+02 -.819E+02   0.389E+01 -.473E+00 0.758E+01   0.751E-04 -.111E-03 -.428E-05
   0.397E+02 0.482E+02 -.239E+02   -.445E+02 -.540E+02 0.289E+02   0.475E+01 0.579E+01 -.432E+01   0.858E-04 -.422E-04 -.147E-03
   -.354E+02 0.503E+02 -.515E+02   0.408E+02 -.593E+02 0.587E+02   -.434E+01 0.699E+01 -.591E+01   0.714E-04 -.156E-03 0.160E-03
   -.116E+02 -.486E+02 -.306E+02   0.111E+02 0.560E+02 0.356E+02   0.358E+00 -.684E+01 -.440E+01   0.296E-04 -.274E-04 0.236E-03
   -.250E+02 0.524E+02 0.315E+02   0.306E+02 -.605E+02 -.363E+02   -.505E+01 0.672E+01 0.415E+01   0.180E-03 0.114E-03 -.113E-03
   -.479E+02 -.554E+02 -.370E+02   0.568E+02 0.639E+02 0.418E+02   -.693E+01 -.656E+01 -.378E+01   0.659E-04 0.188E-03 0.970E-04
   0.315E+02 -.427E+02 0.225E+02   -.358E+02 0.472E+02 -.254E+02   0.436E+01 -.513E+01 0.354E+01   -.128E-03 0.134E-03 0.234E-03
   0.376E+02 0.181E+02 -.507E+02   -.418E+02 -.207E+02 0.561E+02   0.454E+01 0.296E+01 -.579E+01   -.816E-04 0.111E-03 0.738E-05
 -----------------------------------------------------------------------------------------------
   -.129E+03 0.398E+03 -.204E+03   0.760E-12 0.270E-12 -.142E-12   0.129E+03 -.398E+03 0.204E+03   0.360E-02 -.126E-02 0.665E-02
 
 
 POSITION                                       TOTAL-FORCE (eV/Angst)
 -----------------------------------------------------------------------------------
      0.02611      3.44057      8.96681        -1.989912     -1.255898     -1.294101
      7.61656      7.85232      6.76619        -2.301801     -3.125309      0.678388
      2.20920      3.11403      4.28388        -1.836414     -1.099866     -3.477801
      4.96734      7.14368      6.19343        -1.407675      0.723357      2.841968
      3.39898      9.40999      0.34582        -1.193138      0.103754     -0.104165
      8.52624      8.42259      0.68362         1.790340     -0.232942      0.709294
      3.05524      0.32330      6.49969        -2.153752     -1.075240     -1.876403
      2.82483      3.79161      6.84580        -0.144772      0.260207      0.410111
      4.70194      1.92928      7.93616         0.378400      0.102990      4.000932
      5.52427      3.42634      5.44855         0.190801     -0.583673     -0.868000
      6.22318      8.91013     11.42046        -1.649477      0.814495     -0.335726
      4.70603      6.05786     11.24783        -2.000879      2.493396     -0.513477
      7.66968     11.14990      2.15090         2.517436      4.235229     -3.247501
     10.60628      4.93411     11.14541        -1.244312      0.471200     -3.404684
      7.26116      4.06509      7.51299         2.280391      0.266067      1.614743
     10.44633      8.91345      2.62969        -0.085203     -1.109278     -2.975832
      1.34913      2.74268      0.58553         0.011006      1.856583      0.912867
      9.97010      0.38101      2.71219         0.747458      1.580498     -2.089445
      6.65976      8.82531      3.46274        -0.735896      4.352681      0.813723
      8.30408      6.26461      9.27653         1.908330      2.584214      2.964755
      4.16242     10.35613      3.88639         3.298789      0.001256      0.014134
      6.79299      0.20806      8.03673        -0.589158     -2.944873      2.286892
      9.19299      3.19391      1.88436        -2.083256      0.792510     -2.180683
      4.50527      0.05927      1.76097         4.535854      1.292519      0.531402
      8.07110      1.74745      6.07873         1.329393      1.766976      0.712791
      2.04698      7.11465      6.67700         0.314568     -1.633302      3.066547
     10.35219     10.58559      4.79416         4.232609      0.681948     -3.498384
     10.73063     10.49211      7.38035        -2.580493     -2.068370      1.880385
      9.42960      3.88457      4.69119        -3.467472      2.238862     -0.221418
      8.73755     10.73379      9.34825        -0.595927     -0.051951      0.236886
      0.30244      0.87994      7.89527         0.992665     -0.658905     -0.543068
     11.24615      6.74292      8.82145        -0.479415     -2.312646     -1.919643
      1.39522      8.22765     10.89493         0.234605      0.632700      1.116919
      2.78223      3.60579     10.09961        -1.409034      3.122799     -0.631758
      6.62538      0.06636     11.63813         2.383447      1.550200      0.129280
      8.01892      5.70786      0.04878        -1.221396      0.727991      1.275818
      6.15836      0.23622      4.53323         2.628694      0.005763      0.783575
      0.73693     10.90904     10.12063         1.231497      0.894467      0.653761
     11.54945      0.63254      0.42820        -0.559378      0.123439     -1.286314
      4.69491     10.74022     10.13278        -3.169543      5.299230     -0.242594
      9.11360      7.14765      4.17838        -1.095964     -1.594526     -1.077792
     11.50720      7.07110      0.54157        -1.209560      4.482652      0.139699
      0.23807      4.97483      2.08934        -3.751029      0.405811     -5.320189
     10.27702      8.04477      6.66536        -0.153258     -4.319506      0.870916
      5.43365      2.47507      2.83704         3.190644     -2.500180      1.066072
      1.42292      0.41223      4.06233        -1.982238      4.397379     -1.287779
     10.63800      4.62178      7.10103        -1.085385      1.559543     -0.709857
      5.34090      7.10737      1.69992        -2.288379      0.906799     -1.198023
      9.52463      1.29916     10.27996         2.778200      0.284266     -1.687839
      5.81436      3.95441      9.82418        -3.019437      1.027181     -0.982373
      4.01489      6.20979      3.89221         2.176014      3.832857     -1.544470
      0.24228      6.58120      4.74586         0.724718      0.486081     -2.422991
      6.95605      5.07797      2.53145         0.916189      2.766221     -0.557746
      7.60348     10.46074      5.95105         1.770442     -3.108375     -3.420531
      1.84098     11.52284      1.46072        -1.298852      0.511997     -1.042142
      5.74758      7.44830      9.06122        -1.551301     -0.202599     -1.782030
      2.79094      9.77115      8.31270        -1.130422      1.970616      1.017343
      1.70773      8.86928      3.63311         2.067857     -0.356544     -1.605513
      2.79201      0.96393     10.71079        -0.130606      1.794629     -0.122771
      7.53544      2.63081     11.70476        -0.953137      0.966885     -4.077038
      3.31239      4.13120      2.09254        -0.010220      0.144921     -0.771410
      1.99542      6.25126      9.34085        -1.101309      1.331078     -1.973271
     11.62890      2.29065      4.90317        -2.837153     -0.506554     -0.188318
     10.39939      8.85030     10.33507        -0.667633     -0.139066      0.080131
     11.55871      3.82315      9.67823        -1.295101      0.582183      1.132432
      0.87597      3.65391      9.21972         3.585496      0.711473      0.760765
      8.49766      7.63013      6.99665         1.629305     -0.295528      0.282402
      7.62665      8.72327      6.49326         0.047952      3.504878     -1.096829
      2.65176      3.01287      5.07936         1.533589     -0.261545      2.858315
      1.97640      2.17764      3.99654         0.433595      0.991389      0.661492
      5.87156      7.37821      6.23932         2.118091      0.355857     -0.151954
      4.75464      6.78708      5.36405        -0.637878     -1.105234     -2.491960
      4.00446      9.49049     11.61066         0.485048      0.066107      0.271035
      3.75609      8.81357      1.00248         0.616204     -0.205049      0.049937
      8.50954      7.45938      0.82142        -0.603309     -0.406205     -0.333832
      9.35849      8.59733      1.21634        -0.933818      0.699030     -0.294144
      3.51824      0.89941      7.05191         1.494886      1.657332      1.835816
      3.46007     11.48495      6.59382         0.299840     -0.834192      0.210379
      2.68056      3.69639      7.79432         0.242394     -0.531069      0.378947
      2.68861      4.74083      6.76977        -0.092824      0.579080     -0.657315
      4.73890      2.46877      7.17455         0.309353      1.490428     -1.707058
      4.93734      2.53041      8.76417        -0.434754     -1.238483     -2.396353
      4.91529      4.16803      5.39572        -0.121962      0.259467     -0.208421
      5.65319      3.08814      4.50669        -0.326759      0.320257      1.377881
      6.23426      8.40488     10.61791        -0.293084     -0.722617     -1.101066
      7.03934      8.71451     11.83715         1.616174      0.022563      1.145998
      4.91601      6.12371     10.30465        -0.035490      1.182930     -0.434130
      5.13768      5.27581     11.39222         1.897068     -3.586395      1.202607
      7.10983     10.85637      2.76335        -3.855271     -1.934805      4.402805
      7.97890     10.38945      1.73913         1.150609     -2.528784     -1.339966
     11.20654      5.66827     11.12976         0.350155      1.090548      0.059533
     10.83862      4.47147     11.89047         0.834049     -2.059430      3.280147
      6.55997      3.83844      6.95161        -2.352754     -0.093583     -1.854803
      7.84794      3.33636      7.24362         0.281116      0.146821      0.424541
      9.99588      8.36964      3.25149        -1.048557     -1.739118      0.869574
     10.82448      9.54065      3.18662         1.236581      2.537628      1.437285
      2.00787      2.22828      0.15071         0.849122     -0.801868     -0.683573
      0.54925      2.23286      0.58616        -0.902242     -1.038035     -0.116668
     10.07238      0.05291      3.57890         0.566541     -0.926476      1.966037
      9.07161      0.17734      2.46270        -0.893510     -0.440455     -0.166070
      7.22140      8.33596      3.99053         2.218834     -1.889456      1.901790
      6.25937      8.26534      2.87389        -1.477756     -2.392456     -2.756177
      8.12091      5.60133      8.69675        -1.417671     -3.314921     -3.342941
      9.21451      6.01116      9.54055        -0.452273      0.533660      0.149802
      3.36527      9.92068      3.78549        -4.008101     -0.994610     -0.158780
      4.71750      9.54357      3.83025         0.762055      0.857292      0.390680
      7.35294      0.63933      7.46792         2.710106      2.028260     -2.134017
      6.01291      0.72622      7.97868        -1.915861      0.949011      0.089858
      9.21233      3.75434      2.63731         0.536281      0.502919      1.560958
      9.87156      2.56095      1.86854         1.517345     -1.292119      0.721538
      4.50888     11.35565      2.37763        -0.392457     -1.082034      1.038826
      3.67400      0.14970      1.42264        -4.003654      0.234799     -1.325077
      7.62680      1.19928      5.47566        -1.394858     -1.631038     -1.222299
      8.35056      2.48886      5.49331         0.358902     -0.045646      0.342551
      2.97193      7.42081      6.59390        -0.142429     -0.166877     -0.082643
      2.02122      6.61284      7.63487         0.197296      1.670923     -2.710868
      9.49847     10.42974      4.99153        -5.137321     -0.792268      1.407480
     10.79884     10.70318      5.60431         0.640894      0.266135      1.798208
     11.14020     11.29977      7.57403         1.145137      2.580803      0.432793
      9.95176     10.42807      8.07655         1.470119      0.528935     -1.731056
     10.15221      3.34987      4.71444         3.953426     -4.198881     -1.532034
      9.77555      4.27092      5.48926        -0.639110      1.866850      1.779174
      7.76022     10.89817      9.34248         0.800223     -0.151110     -0.367111
      9.06251     11.47281      9.88887         0.125255      0.387051     -0.243552
      0.36967      1.82207      8.11115        -0.399404     -0.067833      0.228175
      1.13578      0.67994      7.40108        -0.556829      0.081671      0.276692
      0.09779      6.69773      9.14581         2.198112     -0.504844      0.293232
     10.87690      7.44075      9.29202        -1.705785      2.909623      2.133651
      2.07764      8.60768     11.54361        -0.770745     -0.381121     -0.865773
      0.59013      8.01397     11.44028         0.655355     -0.230544     -0.286187
      3.66186      3.86176     10.29877         1.661622      0.732851      0.198448
      2.82221      2.69336     10.07172        -0.145368     -3.810625      0.120827
      5.85211     11.78635     11.23336        -2.097568     -0.854483     -1.055027
      6.68642     11.67903      0.48681        -0.051389     -0.413636      0.951471
      7.67423      6.22152     11.32125         0.328943     -0.467620     -0.352846
      8.78619      5.20907     11.81942         0.938701     -0.253908     -0.853744
      6.03690      0.90330      3.89358         0.315929      1.837833     -1.342088
      5.31886     11.88812      4.52252        -3.170829     -1.839381      0.491088
      0.30910     11.23892      9.35465        -0.722977      1.409757     -1.369016
      0.42129     10.02772     10.14835        -0.446688     -2.029860      0.701711
     10.99256      0.52291     11.60640         0.702270      0.345862      1.598447
     10.97901      0.63469      1.22692        -0.255321     -0.453842     -0.039510
      5.23940     10.08450     10.34684         4.242818     -4.572506      1.484139
      4.04181     10.41402      9.53683        -1.077989     -0.707813     -1.478886
      9.44162      7.39159      5.03260         0.527481      0.170425      1.413170
      8.81514      6.19559      4.24967         0.476483      1.395890     -0.200905
     11.33717      7.83332      1.23763         0.291255     -1.885766     -1.444023
     11.80118      6.35397      1.05372         0.977734     -2.112594      1.723101
      0.86914      4.34605      1.93521         2.504368     -3.070806     -1.473519
      0.45570      5.22691      2.89488         1.042474      2.696271      6.876960
     10.67982      7.72856      7.52605        -0.129626      0.422859     -1.460468
     10.32882      8.95358      6.62695         0.567976      3.299539      0.050680
      4.85219      3.15260      2.66284        -2.766252      2.483994     -1.192245
      5.17159      1.65518      2.37373        -0.511803     -0.071715     -0.329836
      1.45631     11.98334      3.26111         0.120333     -1.398319     -2.972154
      1.73365     11.86067      4.67507         1.982730     -2.956867      3.927390
     10.75217      5.36160      7.73628         0.005650     -0.249585     -0.449601
     11.13575      3.92098      7.48280         0.875703     -1.024566      0.607511
      4.86993      6.75533      0.87920         0.884664      0.779527      0.557643
      5.81725      6.35409      2.00638         1.507345     -1.831726      0.649106
      9.77751      2.11933      9.77588        -0.355218     -1.360035      0.668973
      8.69909      1.48879     10.66209        -2.211284      0.852750      1.198528
      6.35368      3.47647     10.37919         2.031279     -2.241749      3.154038
      6.47491      4.22017      9.20757         0.774630      0.659227     -2.055253
      3.56035      5.45375      3.61382        -1.183153     -1.932757     -1.119506
      4.40075      6.71398      2.97553        -1.130239     -1.853317      2.595704
     11.61493      6.19960      5.28657        -1.650439     -0.803200      1.224218
      0.98139      6.73062      5.32652         1.007711      0.227651      0.918476
      6.77773      4.18903      2.62817        -1.162857     -3.465916      0.956793
      7.53977      5.01816      1.76077         0.082430      0.815975     -0.488833
      7.44934     10.90919      6.71208        -1.065870      2.411963      3.946137
      7.04377     10.82468      5.27381        -0.498422      0.484686     -0.497961
      1.02876     11.74599      0.92248         0.207618      0.371412      0.850478
      2.16419     10.79993      0.91908         0.799377     -0.888301      0.174228
      6.64051      7.12802      8.95256         0.929695     -0.077871     -0.134716
      5.39433      7.40481      8.10653         0.463331      0.204589      1.810270
      2.40401      8.91961      8.50970        -0.101237     -0.666661     -0.126440
      2.10959     10.39012      8.76346         1.251297     -1.093226     -0.753322
      2.00019      8.05706      3.14499        -0.412818      0.886884      0.800614
      0.89394      8.61255      4.01887        -1.527286     -0.656867      0.872172
      3.48677      0.33545     10.70544         1.569248     -1.202732     -0.154478
      2.04502      0.47309     11.00483        -1.387748     -0.830678      0.125423
      7.91756      2.75965      0.49467         2.526618      1.487247      4.100710
      7.01823      1.88364     11.89676        -1.751183     -2.557651     -0.186341
      2.86466      4.17799      1.23309         0.305004      0.093882     -0.056657
      2.77016      3.47846      2.55560        -0.004660     -0.034004      0.722088
      2.39332      5.62437      9.88900         1.084584     -2.019521      1.335357
      1.95728      7.06516      9.87822        -0.207764      0.559986      0.597554
      0.13140      1.62805      4.48558         0.505487     -1.359915     -0.630145
      0.23499      2.86935      5.23778         1.964970      1.975619      0.972284
      9.81754      9.51901      9.88020         0.085636     -0.595758      0.541977
      9.81718      8.48922     11.04926         0.402615      0.413954     -0.420135
 -----------------------------------------------------------------------------------
    total drift:                                0.011117      0.050777     -0.033006


--------------------------------------------------------------------------------------------------------



  FREE ENERGIE OF THE ION-ELECTRON SYSTEM (eV)
  ---------------------------------------------------
  free  energy   TOTEN  =     -1002.66863013 eV

  energy  without entropy=    -1002.66863013  energy(sigma->0) =    -1002.66863013
  enthalpy is  TOTEN    =     -1002.65779755 eV   P V=        0.01083258

 d Force =-0.2456970E+00[-0.766E+00, 0.275E+00]  d Energy =-0.2502147E+00 0.452E-02
 d Force =-0.1374580E+02[-0.148E+02,-0.127E+02]  d Ewald  =-0.1325607E+02-0.490E+00


--------------------------------------------------------------------------------------------------------


    POTLOK:  cpu time      4.4483: real time      4.4559


--------------------------------------------------------------------------------------------------------